;;
;; Generated by CHARMM-GUI FF-Converter
;;
;; Correspondance:
;; jul316@lehigh.edu or wonpil@lehigh.edu
;;
;; The main GROMACS topology file
;;

; Include forcefield parameters
#include "toppar/forcefield.itp"
#include "toppar/PRO.itp"
#include "toppar/POPC.itp"
#include "toppar/POPA.itp"
#include "toppar/K+.itp"
#include "toppar/Cl-.itp"
#include "toppar/TP3.itp"

[ system ]
; Name
Title

[ molecules ]
; Compound	#mols
PRO  	           1
POPC  	          87
POPA  	          29
K+    	          95
Cl-   	          66
TP3   	       12297
