;;
;; Generated by CHARMM-GUI FF-Converter
;;
;; Correspondance:
;; jul316@lehigh.edu or wonpil@lehigh.edu
;;
;; GROMACS topology file for POPA
;;


[ moleculetype ]
; name	nrexcl
POPA	     3

[ atoms ]
; nr	type	resnr	residu	atom	cgnr	charge	mass
     1         cD      1       PA   C116      1    -0.125447    12.0100   ; qtot -0.125
     2         hL      1       PA   H16R      2     0.029047     1.0080   ; qtot -0.096
     3         hL      1       PA   H16S      3     0.029047     1.0080   ; qtot -0.067
     4         hL      1       PA   H16T      4     0.029047     1.0080   ; qtot -0.038
     5         cD      1       PA   C115      5     0.013975    12.0100   ; qtot -0.024
     6         hL      1       PA   H15R      6     0.009292     1.0080   ; qtot -0.015
     7         hL      1       PA   H15S      7     0.009292     1.0080   ; qtot -0.006
     8         cD      1       PA   C114      8    -0.020086    12.0100   ; qtot -0.026
     9         hL      1       PA   H14R      9     0.015929     1.0080   ; qtot -0.010
    10         hL      1       PA   H14S     10     0.015929     1.0080   ; qtot  0.006
    11         cD      1       PA   C113     11    -0.033096    12.0100   ; qtot -0.027
    12         hL      1       PA   H13R     12     0.014621     1.0080   ; qtot -0.012
    13         hL      1       PA   H13S     13     0.014621     1.0080   ; qtot  0.002
    14         cD      1       PA   C112     14    -0.027633    12.0100   ; qtot -0.025
    15         hL      1       PA   H12R     15     0.011368     1.0080   ; qtot -0.014
    16         hL      1       PA   H12S     16     0.011368     1.0080   ; qtot -0.003
    17         cD      1       PA   C111     17    -0.025206    12.0100   ; qtot -0.028
    18         hL      1       PA   H11R     18     0.014334     1.0080   ; qtot -0.014
    19         hL      1       PA   H11S     19     0.014334     1.0080   ; qtot  0.001
    20         cD      1       PA   C110     20    -0.028831    12.0100   ; qtot -0.028
    21         hL      1       PA   H10R     21     0.014691     1.0080   ; qtot -0.013
    22         hL      1       PA   H10S     22     0.014691     1.0080   ; qtot  0.001
    23         cD      1       PA    C19     23    -0.030472    12.0100   ; qtot -0.029
    24         hL      1       PA    H9R     24     0.013897     1.0080   ; qtot -0.015
    25         hL      1       PA    H9S     25     0.013897     1.0080   ; qtot -0.001
    26         cD      1       PA    C18     26    -0.015793    12.0100   ; qtot -0.017
    27         hL      1       PA    H8R     27     0.009067     1.0080   ; qtot -0.008
    28         hL      1       PA    H8S     28     0.009067     1.0080   ; qtot  0.001
    29         cD      1       PA    C17     29    -0.019630    12.0100   ; qtot -0.019
    30         hL      1       PA    H7R     30     0.011041     1.0080   ; qtot -0.008
    31         hL      1       PA    H7S     31     0.011041     1.0080   ; qtot  0.003
    32         cD      1       PA    C16     32    -0.024427    12.0100   ; qtot -0.021
    33         hL      1       PA    H6R     33     0.013334     1.0080   ; qtot -0.008
    34         hL      1       PA    H6S     34     0.013334     1.0080   ; qtot  0.006
    35         cD      1       PA    C15     35    -0.029387    12.0100   ; qtot -0.024
    36         hL      1       PA    H5R     36     0.016763     1.0080   ; qtot -0.007
    37         hL      1       PA    H5S     37     0.016763     1.0080   ; qtot  0.010
    38         cD      1       PA    C14     38    -0.030099    12.0100   ; qtot -0.020
    39         hL      1       PA    H4R     39     0.020877     1.0080   ; qtot  0.001
    40         hL      1       PA    H4S     40     0.020877     1.0080   ; qtot  0.021
    41         cD      1       PA    C13     41    -0.004882    12.0100   ; qtot  0.017
    42         hL      1       PA    H3R     42     0.019007     1.0080   ; qtot  0.036
    43         hL      1       PA    H3S     43     0.019007     1.0080   ; qtot  0.055
    44         cD      1       PA    C12     44    -0.149259    12.0100   ; qtot -0.095
    45         hL      1       PA    H2R     45     0.047345     1.0080   ; qtot -0.047
    46         hL      1       PA    H2S     46     0.047345     1.0080   ; qtot -0.000
    47         cC      1      PH-    C11     47     0.888207    12.0100   ; qtot  0.888
    48         oC      1      PH-    O12     48    -0.671142    16.0000   ; qtot  0.217
    49         oS      1      PH-    O11     49    -0.547824    16.0000   ; qtot -0.331
    50         cA      1      PH-     C1     50     0.185299    12.0100   ; qtot -0.145
    51         hE      1      PH-     HR     51     0.067676     1.0080   ; qtot -0.078
    52         hE      1      PH-     HS     52     0.067676     1.0080   ; qtot -0.010
    53         cA      1      PH-     C2     53     0.283546    12.0100   ; qtot  0.273
    54         hE      1      PH-     HX     54     0.063862     1.0080   ; qtot  0.337
    55         cA      1      PH-     C3     55     0.081528    12.0100   ; qtot  0.419
    56         hE      1      PH-     HA     56     0.083099     1.0080   ; qtot  0.502
    57         hE      1      PH-     HB     57     0.083099     1.0080   ; qtot  0.585
    58         oT      1      PH-    O31     58    -0.594197    16.0000   ; qtot -0.009
    59         pA      1      PH-    P31     59     1.456663    30.9700   ; qtot  1.447
    60         oH      1      PH-    O32     60    -0.706197    16.0000   ; qtot  0.741
    61         hO      1      PH-   HO2A     61     0.415628     1.0080   ; qtot  1.157
    62         oP      1      PH-    O33     62    -0.914158    16.0000   ; qtot  0.243
    63         oP      1      PH-    O34     63    -0.914158    16.0000   ; qtot -0.671
    64         oS      1      PH-    O21     64    -0.554487    16.0000   ; qtot -1.226
    65         cC      1      PH-    C21     65     0.897502    12.0100   ; qtot -0.328
    66         oC      1      PH-    O22     66    -0.671622    16.0000   ; qtot -1.000
    67         cD      1       OL    C12     67    -0.143418    12.0100   ; qtot -1.143
    68         hL      1       OL    H2R     68     0.042861     1.0080   ; qtot -1.101
    69         hL      1       OL    H2S     69     0.042861     1.0080   ; qtot -1.058
    70         cD      1       OL    C13     70     0.001619    12.0100   ; qtot -1.056
    71         hL      1       OL    H3R     71     0.019529     1.0080   ; qtot -1.037
    72         hL      1       OL    H3S     72     0.019529     1.0080   ; qtot -1.017
    73         cD      1       OL    C14     73    -0.022960    12.0100   ; qtot -1.040
    74         hL      1       OL    H4R     74     0.018134     1.0080   ; qtot -1.022
    75         hL      1       OL    H4S     75     0.018134     1.0080   ; qtot -1.004
    76         cD      1       OL    C15     76    -0.016692    12.0100   ; qtot -1.020
    77         hL      1       OL    H5R     77     0.008690     1.0080   ; qtot -1.012
    78         hL      1       OL    H5S     78     0.008690     1.0080   ; qtot -1.003
    79         cD      1       OL    C16     79    -0.023789    12.0100   ; qtot -1.027
    80         hL      1       OL    H6R     80     0.009266     1.0080   ; qtot -1.018
    81         hL      1       OL    H6S     81     0.009266     1.0080   ; qtot -1.008
    82         cD      1       OL    C17     82    -0.017495    12.0100   ; qtot -1.026
    83         hL      1       OL    H7R     83     0.019598     1.0080   ; qtot -1.006
    84         hL      1       OL    H7S     84     0.019598     1.0080   ; qtot -0.987
    85         cD      1       OL    C18     85     0.031775    12.0100   ; qtot -0.955
    86         hL      1       OL    H8R     86     0.032685     1.0080   ; qtot -0.922
    87         hL      1       OL    H8S     87     0.032685     1.0080   ; qtot -0.889
    88         cB      1       OL    C19     88    -0.244228    12.0100   ; qtot -1.134
    89         hB      1       OL    H9R     89     0.131512     1.0080   ; qtot -1.002
    90         cB      1       OL   C110     90    -0.239284    12.0100   ; qtot -1.241
    91         hB      1       OL   H10R     91     0.126878     1.0080   ; qtot -1.115
    92         cD      1       OL   C111     92     0.029059    12.0100   ; qtot -1.085
    93         hL      1       OL   H11R     93     0.033531     1.0080   ; qtot -1.052
    94         hL      1       OL   H11S     94     0.033531     1.0080   ; qtot -1.018
    95         cD      1       OL   C112     95    -0.026353    12.0100   ; qtot -1.045
    96         hL      1       OL   H12R     96     0.019717     1.0080   ; qtot -1.025
    97         hL      1       OL   H12S     97     0.019717     1.0080   ; qtot -1.005
    98         cD      1       OL   C113     98    -0.018257    12.0100   ; qtot -1.024
    99         hL      1       OL   H13R     99     0.013800     1.0080   ; qtot -1.010
   100         hL      1       OL   H13S    100     0.013800     1.0080   ; qtot -0.996
   101         cD      1       OL   C114    101    -0.024849    12.0100   ; qtot -1.021
   102         hL      1       OL   H14R    102     0.008572     1.0080   ; qtot -1.012
   103         hL      1       OL   H14S    103     0.008572     1.0080   ; qtot -1.004
   104         cD      1       OL   C115    104    -0.023247    12.0100   ; qtot -1.027
   105         hL      1       OL   H15R    105     0.010403     1.0080   ; qtot -1.017
   106         hL      1       OL   H15S    106     0.010403     1.0080   ; qtot -1.006
   107         cD      1       OL   C116    107    -0.012488    12.0100   ; qtot -1.019
   108         hL      1       OL   H16R    108     0.013659     1.0080   ; qtot -1.005
   109         hL      1       OL   H16S    109     0.013659     1.0080   ; qtot -0.991
   110         cD      1       OL   C117    110     0.008684    12.0100   ; qtot -0.983
   111         hL      1       OL   H17R    111     0.010026     1.0080   ; qtot -0.973
   112         hL      1       OL   H17S    112     0.010026     1.0080   ; qtot -0.963
   113         cD      1       OL   C118    113    -0.117290    12.0100   ; qtot -1.080
   114         hL      1       OL   H18R    114     0.026627     1.0080   ; qtot -1.053
   115         hL      1       OL   H18S    115     0.026627     1.0080   ; qtot -1.027
   116         hL      1       OL   H18T    116     0.026627     1.0080   ; qtot -1.000

[ bonds ]
; ai	aj	funct	b0	Kb
    1     2     1
    1     3     1
    1     4     1
    1     5     1
    5     6     1
    5     7     1
    5     8     1
    8     9     1
    8    10     1
    8    11     1
   11    12     1
   11    13     1
   11    14     1
   14    15     1
   14    16     1
   14    17     1
   17    18     1
   17    19     1
   17    20     1
   20    21     1
   20    22     1
   20    23     1
   23    24     1
   23    25     1
   23    26     1
   26    27     1
   26    28     1
   26    29     1
   29    30     1
   29    31     1
   29    32     1
   32    33     1
   32    34     1
   32    35     1
   35    36     1
   35    37     1
   35    38     1
   38    39     1
   38    40     1
   38    41     1
   41    42     1
   41    43     1
   41    44     1
   44    45     1
   44    46     1
   47    44     1
   47    48     1
   47    49     1
   49    50     1
   50    51     1
   50    52     1
   50    53     1
   53    54     1
   53    55     1
   53    64     1
   55    56     1
   55    57     1
   55    58     1
   58    59     1
   59    60     1
   59    62     1
   59    63     1
   60    61     1
   64    65     1
   65    66     1
   65    67     1
   67    68     1
   67    69     1
   67    70     1
   70    71     1
   70    72     1
   70    73     1
   73    74     1
   73    75     1
   73    76     1
   76    77     1
   76    78     1
   76    79     1
   79    80     1
   79    81     1
   79    82     1
   82    83     1
   82    84     1
   82    85     1
   85    86     1
   85    87     1
   85    88     1
   88    89     1
   88    90     1
   90    91     1
   90    92     1
   92    93     1
   92    94     1
   92    95     1
   95    96     1
   95    97     1
   95    98     1
   98    99     1
   98   100     1
   98   101     1
  101   102     1
  101   103     1
  101   104     1
  104   105     1
  104   106     1
  104   107     1
  107   108     1
  107   109     1
  107   110     1
  110   111     1
  110   112     1
  110   113     1
  113   114     1
  113   115     1
  113   116     1

[ pairs ]
; ai	aj	funct	c6	c12 or
; ai	aj	funct	fudgeQQ	q1	q2	c6	c12
    1     9     1
    1    10     1
    1    11     2 0.833333    -0.125447    -0.033096  3.39966950842e-01  7.62882666667e-02
    2     6     1
    2     7     1
    2     8     1
    3     6     1
    3     7     1
    3     8     1
    4     6     1
    4     7     1
    4     8     1
    5    12     1
    5    13     1
    5    14     2 0.833333     0.013975    -0.027633  3.39966950842e-01  7.62882666667e-02
    6     9     1
    6    10     1
    6    11     1
    7     9     1
    7    10     1
    7    11     1
    8    15     1
    8    16     1
    8    17     2 0.833333    -0.020086    -0.025206  3.39966950842e-01  7.62882666667e-02
    9    12     1
    9    13     1
    9    14     1
   10    12     1
   10    13     1
   10    14     1
   11    18     1
   11    19     1
   11    20     2 0.833333    -0.033096    -0.028831  3.39966950842e-01  7.62882666667e-02
   12    15     1
   12    16     1
   12    17     1
   13    15     1
   13    16     1
   13    17     1
   14    21     1
   14    22     1
   14    23     2 0.833333    -0.027633    -0.030472  3.39966950842e-01  7.62882666667e-02
   15    18     1
   15    19     1
   15    20     1
   16    18     1
   16    19     1
   16    20     1
   17    24     1
   17    25     1
   17    26     2 0.833333    -0.025206    -0.015793  3.39966950842e-01  7.62882666667e-02
   18    21     1
   18    22     1
   18    23     1
   19    21     1
   19    22     1
   19    23     1
   20    27     1
   20    28     1
   20    29     2 0.833333    -0.028831    -0.019630  3.39966950842e-01  7.62882666667e-02
   21    24     1
   21    25     1
   21    26     1
   22    24     1
   22    25     1
   22    26     1
   23    30     1
   23    31     1
   23    32     2 0.833333    -0.030472    -0.024427  3.39966950842e-01  7.62882666667e-02
   24    27     1
   24    28     1
   24    29     1
   25    27     1
   25    28     1
   25    29     1
   26    33     1
   26    34     1
   26    35     2 0.833333    -0.015793    -0.029387  3.39966950842e-01  7.62882666667e-02
   27    30     1
   27    31     1
   27    32     1
   28    30     1
   28    31     1
   28    32     1
   29    36     1
   29    37     1
   29    38     2 0.833333    -0.019630    -0.030099  3.39966950842e-01  7.62882666667e-02
   30    33     1
   30    34     1
   30    35     1
   31    33     1
   31    34     1
   31    35     1
   32    39     1
   32    40     1
   32    41     2 0.833333    -0.024427    -0.004882  3.39966950842e-01  7.62882666667e-02
   33    36     1
   33    37     1
   33    38     1
   34    36     1
   34    37     1
   34    38     1
   35    42     1
   35    43     1
   35    44     2 0.833333    -0.029387    -0.149259  3.39966950842e-01  7.62882666667e-02
   36    39     1
   36    40     1
   36    41     1
   37    39     1
   37    40     1
   37    41     1
   38    45     1
   38    46     1
   38    47     1
   39    42     1
   39    43     1
   39    44     1
   40    42     1
   40    43     1
   40    44     1
   41    48     1
   41    49     1
   42    45     1
   42    46     1
   42    47     1
   43    45     1
   43    46     1
   43    47     1
   44    50     1
   45    48     1
   45    49     1
   46    48     1
   46    49     1
   47    51     1
   47    52     1
   47    53     1
   48    50     1
   49    54     1
   49    55     1
   49    64     1
   50    56     1
   50    57     1
   50    58     1
   50    65     1
   51    54     1
   51    55     1
   51    64     1
   52    54     1
   52    55     1
   52    64     1
   53    59     1
   53    66     1
   53    67     1
   54    56     1
   54    57     1
   54    58     1
   54    65     1
   55    60     1
   55    62     1
   55    63     1
   55    65     1
   56    59     1
   56    64     1
   57    59     1
   57    64     1
   58    61     1
   58    64     1
   61    62     1
   61    63     1
   64    68     1
   64    69     1
   64    70     1
   65    71     1
   65    72     1
   65    73     1
   66    68     1
   66    69     1
   66    70     1
   67    74     1
   67    75     1
   67    76     2 0.833333    -0.143418    -0.016692  3.39966950842e-01  7.62882666667e-02
   68    71     1
   68    72     1
   68    73     1
   69    71     1
   69    72     1
   69    73     1
   70    77     1
   70    78     1
   70    79     2 0.833333     0.001619    -0.023789  3.39966950842e-01  7.62882666667e-02
   71    74     1
   71    75     1
   71    76     1
   72    74     1
   72    75     1
   72    76     1
   73    80     1
   73    81     1
   73    82     2 0.833333    -0.022960    -0.017495  3.39966950842e-01  7.62882666667e-02
   74    77     1
   74    78     1
   74    79     1
   75    77     1
   75    78     1
   75    79     1
   76    83     1
   76    84     1
   76    85     2 0.833333    -0.016692     0.031775  3.39966950842e-01  7.62882666667e-02
   77    80     1
   77    81     1
   77    82     1
   78    80     1
   78    81     1
   78    82     1
   79    86     1
   79    87     1
   79    88     1
   80    83     1
   80    84     1
   80    85     1
   81    83     1
   81    84     1
   81    85     1
   82    89     1
   82    90     1
   83    86     1
   83    87     1
   83    88     1
   84    86     1
   84    87     1
   84    88     1
   85    91     1
   85    92     1
   86    89     1
   86    90     1
   87    89     1
   87    90     1
   88    93     1
   88    94     1
   88    95     1
   89    91     1
   89    92     1
   90    96     1
   90    97     1
   90    98     1
   91    93     1
   91    94     1
   91    95     1
   92    99     1
   92   100     1
   92   101     2 0.833333     0.029059    -0.024849  3.39966950842e-01  7.62882666667e-02
   93    96     1
   93    97     1
   93    98     1
   94    96     1
   94    97     1
   94    98     1
   95   102     1
   95   103     1
   95   104     2 0.833333    -0.026353    -0.023247  3.39966950842e-01  7.62882666667e-02
   96    99     1
   96   100     1
   96   101     1
   97    99     1
   97   100     1
   97   101     1
   98   105     1
   98   106     1
   98   107     2 0.833333    -0.018257    -0.012488  3.39966950842e-01  7.62882666667e-02
   99   102     1
   99   103     1
   99   104     1
  100   102     1
  100   103     1
  100   104     1
  101   108     1
  101   109     1
  101   110     2 0.833333    -0.024849     0.008684  3.39966950842e-01  7.62882666667e-02
  102   105     1
  102   106     1
  102   107     1
  103   105     1
  103   106     1
  103   107     1
  104   111     1
  104   112     1
  104   113     2 0.833333    -0.023247    -0.117290  3.39966950842e-01  7.62882666667e-02
  105   108     1
  105   109     1
  105   110     1
  106   108     1
  106   109     1
  106   110     1
  107   114     1
  107   115     1
  107   116     1
  108   111     1
  108   112     1
  108   113     1
  109   111     1
  109   112     1
  109   113     1
  111   114     1
  111   115     1
  111   116     1
  112   114     1
  112   115     1
  112   116     1

[ angles ] 
; ai	aj	ak	funct	th0	cth	S0	Kub
    2     1     3     5
    2     1     4     5
    2     1     5     5
    3     1     4     5
    3     1     5     5
    4     1     5     5
    1     5     6     5
    1     5     7     5
    1     5     8     5
    6     5     7     5
    6     5     8     5
    7     5     8     5
    5     8     9     5
    5     8    10     5
    5     8    11     5
    9     8    10     5
    9     8    11     5
   10     8    11     5
    8    11    12     5
    8    11    13     5
    8    11    14     5
   12    11    13     5
   12    11    14     5
   13    11    14     5
   11    14    15     5
   11    14    16     5
   11    14    17     5
   15    14    16     5
   15    14    17     5
   16    14    17     5
   14    17    18     5
   14    17    19     5
   14    17    20     5
   18    17    19     5
   18    17    20     5
   19    17    20     5
   17    20    21     5
   17    20    22     5
   17    20    23     5
   21    20    22     5
   21    20    23     5
   22    20    23     5
   20    23    24     5
   20    23    25     5
   20    23    26     5
   24    23    25     5
   24    23    26     5
   25    23    26     5
   23    26    27     5
   23    26    28     5
   23    26    29     5
   27    26    28     5
   27    26    29     5
   28    26    29     5
   26    29    30     5
   26    29    31     5
   26    29    32     5
   30    29    31     5
   30    29    32     5
   31    29    32     5
   29    32    33     5
   29    32    34     5
   29    32    35     5
   33    32    34     5
   33    32    35     5
   34    32    35     5
   32    35    36     5
   32    35    37     5
   32    35    38     5
   36    35    37     5
   36    35    38     5
   37    35    38     5
   35    38    39     5
   35    38    40     5
   35    38    41     5
   39    38    40     5
   39    38    41     5
   40    38    41     5
   38    41    42     5
   38    41    43     5
   38    41    44     5
   42    41    43     5
   42    41    44     5
   43    41    44     5
   47    44    41     5
   47    44    45     5
   47    44    46     5
   41    44    45     5
   41    44    46     5
   45    44    46     5
   44    47    48     5
   44    47    49     5
   48    47    49     5
   47    49    50     5
   49    50    51     5
   49    50    52     5
   49    50    53     5
   51    50    52     5
   51    50    53     5
   52    50    53     5
   50    53    54     5
   50    53    55     5
   50    53    64     5
   54    53    55     5
   54    53    64     5
   55    53    64     5
   53    55    56     5
   53    55    57     5
   53    55    58     5
   56    55    57     5
   56    55    58     5
   57    55    58     5
   55    58    59     5
   58    59    60     5
   58    59    62     5
   58    59    63     5
   60    59    62     5
   60    59    63     5
   62    59    63     5
   59    60    61     5
   53    64    65     5
   67    65    64     5
   67    65    66     5
   64    65    66     5
   65    67    68     5
   65    67    69     5
   65    67    70     5
   68    67    69     5
   68    67    70     5
   69    67    70     5
   67    70    71     5
   67    70    72     5
   67    70    73     5
   71    70    72     5
   71    70    73     5
   72    70    73     5
   70    73    74     5
   70    73    75     5
   70    73    76     5
   74    73    75     5
   74    73    76     5
   75    73    76     5
   73    76    77     5
   73    76    78     5
   73    76    79     5
   77    76    78     5
   77    76    79     5
   78    76    79     5
   76    79    80     5
   76    79    81     5
   76    79    82     5
   80    79    81     5
   80    79    82     5
   81    79    82     5
   79    82    83     5
   79    82    84     5
   79    82    85     5
   83    82    84     5
   83    82    85     5
   84    82    85     5
   82    85    86     5
   82    85    87     5
   82    85    88     5
   86    85    87     5
   86    85    88     5
   87    85    88     5
   85    88    89     5
   85    88    90     5
   89    88    90     5
   88    90    91     5
   88    90    92     5
   91    90    92     5
   90    92    93     5
   90    92    94     5
   90    92    95     5
   93    92    94     5
   93    92    95     5
   94    92    95     5
   92    95    96     5
   92    95    97     5
   92    95    98     5
   96    95    97     5
   96    95    98     5
   97    95    98     5
   95    98    99     5
   95    98   100     5
   95    98   101     5
   99    98   100     5
   99    98   101     5
  100    98   101     5
   98   101   102     5
   98   101   103     5
   98   101   104     5
  102   101   103     5
  102   101   104     5
  103   101   104     5
  101   104   105     5
  101   104   106     5
  101   104   107     5
  105   104   106     5
  105   104   107     5
  106   104   107     5
  104   107   108     5
  104   107   109     5
  104   107   110     5
  108   107   109     5
  108   107   110     5
  109   107   110     5
  107   110   111     5
  107   110   112     5
  107   110   113     5
  111   110   112     5
  111   110   113     5
  112   110   113     5
  110   113   114     5
  110   113   115     5
  110   113   116     5
  114   113   115     5
  114   113   116     5
  115   113   116     5

[ dihedrals ]
; ai	aj	ak	al	funct	phi0	cp	mult
    2     1     5     6     9
    2     1     5     7     9
    2     1     5     8     9
    3     1     5     6     9
    3     1     5     7     9
    3     1     5     8     9
    4     1     5     6     9
    4     1     5     7     9
    4     1     5     8     9
    1     5     8     9     9
    1     5     8    10     9
    1     5     8    11     9
    6     5     8     9     9
    6     5     8    10     9
    6     5     8    11     9
    7     5     8     9     9
    7     5     8    10     9
    7     5     8    11     9
    5     8    11    12     9
    5     8    11    13     9
    5     8    11    14     9
    9     8    11    12     9
    9     8    11    13     9
    9     8    11    14     9
   10     8    11    12     9
   10     8    11    13     9
   10     8    11    14     9
    8    11    14    15     9
    8    11    14    16     9
    8    11    14    17     9
   12    11    14    15     9
   12    11    14    16     9
   12    11    14    17     9
   13    11    14    15     9
   13    11    14    16     9
   13    11    14    17     9
   11    14    17    18     9
   11    14    17    19     9
   11    14    17    20     9
   15    14    17    18     9
   15    14    17    19     9
   15    14    17    20     9
   16    14    17    18     9
   16    14    17    19     9
   16    14    17    20     9
   14    17    20    21     9
   14    17    20    22     9
   14    17    20    23     9
   18    17    20    21     9
   18    17    20    22     9
   18    17    20    23     9
   19    17    20    21     9
   19    17    20    22     9
   19    17    20    23     9
   17    20    23    24     9
   17    20    23    25     9
   17    20    23    26     9
   21    20    23    24     9
   21    20    23    25     9
   21    20    23    26     9
   22    20    23    24     9
   22    20    23    25     9
   22    20    23    26     9
   20    23    26    27     9
   20    23    26    28     9
   20    23    26    29     9
   24    23    26    27     9
   24    23    26    28     9
   24    23    26    29     9
   25    23    26    27     9
   25    23    26    28     9
   25    23    26    29     9
   23    26    29    30     9
   23    26    29    31     9
   23    26    29    32     9
   27    26    29    30     9
   27    26    29    31     9
   27    26    29    32     9
   28    26    29    30     9
   28    26    29    31     9
   28    26    29    32     9
   26    29    32    33     9
   26    29    32    34     9
   26    29    32    35     9
   30    29    32    33     9
   30    29    32    34     9
   30    29    32    35     9
   31    29    32    33     9
   31    29    32    34     9
   31    29    32    35     9
   29    32    35    36     9
   29    32    35    37     9
   29    32    35    38     9
   33    32    35    36     9
   33    32    35    37     9
   33    32    35    38     9
   34    32    35    36     9
   34    32    35    37     9
   34    32    35    38     9
   32    35    38    39     9
   32    35    38    40     9
   32    35    38    41     9
   36    35    38    39     9
   36    35    38    40     9
   36    35    38    41     9
   37    35    38    39     9
   37    35    38    40     9
   37    35    38    41     9
   35    38    41    42     9
   35    38    41    43     9
   35    38    41    44     9
   39    38    41    42     9
   39    38    41    43     9
   39    38    41    44     9
   40    38    41    42     9
   40    38    41    43     9
   40    38    41    44     9
   38    41    44    45     9
   38    41    44    46     9
   38    41    44    47     9
   42    41    44    45     9
   42    41    44    46     9
   42    41    44    47     9
   43    41    44    45     9
   43    41    44    46     9
   43    41    44    47     9
   48    47    44    41     9
   48    47    44    45     9
   48    47    44    46     9
   49    47    44    41     9
   49    47    44    45     9
   49    47    44    46     9
   44    47    49    50     9
   48    47    49    50     9
   47    49    50    51     9
   47    49    50    52     9
   47    49    50    53     9
   49    50    53    54     9
   49    50    53    55     9
   49    50    53    64     9
   51    50    53    54     9
   51    50    53    55     9
   51    50    53    64     9
   52    50    53    54     9
   52    50    53    55     9
   52    50    53    64     9
   50    53    55    56     9
   50    53    55    57     9
   50    53    55    58     9
   54    53    55    56     9
   54    53    55    57     9
   54    53    55    58     9
   50    53    64    65     9
   54    53    64    65     9
   55    53    64    65     9
   56    55    53    64     9
   57    55    53    64     9
   58    55    53    64     9
   53    55    58    59     9
   56    55    58    59     9
   57    55    58    59     9
   55    58    59    60     9
   55    58    59    62     9
   55    58    59    63     9
   58    59    60    61     9
   61    60    59    62     9
   61    60    59    63     9
   53    64    65    66     9
   53    64    65    67     9
   68    67    65    64     9
   68    67    65    66     9
   69    67    65    64     9
   69    67    65    66     9
   70    67    65    64     9
   70    67    65    66     9
   65    67    70    71     9
   65    67    70    72     9
   65    67    70    73     9
   68    67    70    71     9
   68    67    70    72     9
   68    67    70    73     9
   69    67    70    71     9
   69    67    70    72     9
   69    67    70    73     9
   67    70    73    74     9
   67    70    73    75     9
   67    70    73    76     9
   71    70    73    74     9
   71    70    73    75     9
   71    70    73    76     9
   72    70    73    74     9
   72    70    73    75     9
   72    70    73    76     9
   70    73    76    77     9
   70    73    76    78     9
   70    73    76    79     9
   74    73    76    77     9
   74    73    76    78     9
   74    73    76    79     9
   75    73    76    77     9
   75    73    76    78     9
   75    73    76    79     9
   73    76    79    80     9
   73    76    79    81     9
   73    76    79    82     9
   77    76    79    80     9
   77    76    79    81     9
   77    76    79    82     9
   78    76    79    80     9
   78    76    79    81     9
   78    76    79    82     9
   76    79    82    83     9
   76    79    82    84     9
   76    79    82    85     9
   80    79    82    83     9
   80    79    82    84     9
   80    79    82    85     9
   81    79    82    83     9
   81    79    82    84     9
   81    79    82    85     9
   79    82    85    86     9
   79    82    85    87     9
   79    82    85    88     9
   83    82    85    86     9
   83    82    85    87     9
   83    82    85    88     9
   84    82    85    86     9
   84    82    85    87     9
   84    82    85    88     9
   82    85    88    89     9
   82    85    88    90     9
   86    85    88    89     9
   86    85    88    90     9
   87    85    88    89     9
   87    85    88    90     9
   85    88    90    91     9
   85    88    90    92     9
   89    88    90    91     9
   89    88    90    92     9
   88    90    92    93     9
   88    90    92    94     9
   88    90    92    95     9
   91    90    92    93     9
   91    90    92    94     9
   91    90    92    95     9
   90    92    95    96     9
   90    92    95    97     9
   90    92    95    98     9
   93    92    95    96     9
   93    92    95    97     9
   93    92    95    98     9
   94    92    95    96     9
   94    92    95    97     9
   94    92    95    98     9
   92    95    98    99     9
   92    95    98   100     9
   92    95    98   101     9
   96    95    98    99     9
   96    95    98   100     9
   96    95    98   101     9
   97    95    98    99     9
   97    95    98   100     9
   97    95    98   101     9
   95    98   101   102     9
   95    98   101   103     9
   95    98   101   104     9
   99    98   101   102     9
   99    98   101   103     9
   99    98   101   104     9
  100    98   101   102     9
  100    98   101   103     9
  100    98   101   104     9
   98   101   104   105     9
   98   101   104   106     9
   98   101   104   107     9
  102   101   104   105     9
  102   101   104   106     9
  102   101   104   107     9
  103   101   104   105     9
  103   101   104   106     9
  103   101   104   107     9
  101   104   107   108     9
  101   104   107   109     9
  101   104   107   110     9
  105   104   107   108     9
  105   104   107   109     9
  105   104   107   110     9
  106   104   107   108     9
  106   104   107   109     9
  106   104   107   110     9
  104   107   110   111     9
  104   107   110   112     9
  104   107   110   113     9
  108   107   110   111     9
  108   107   110   112     9
  108   107   110   113     9
  109   107   110   111     9
  109   107   110   112     9
  109   107   110   113     9
  107   110   113   114     9
  107   110   113   115     9
  107   110   113   116     9
  111   110   113   114     9
  111   110   113   115     9
  111   110   113   116     9
  112   110   113   114     9
  112   110   113   115     9
  112   110   113   116     9

[ dihedrals ]
; ai	aj	ak	al	funct	q0	cq
   44    48    47    49     4
   67    66    65    64     4
   88    92    90    91     4
   90    85    88    89     4

#ifdef POSRES
[ position_restraints ]
   59     1     0.0             0.0            POSRES_FC_LIPID
#endif

#ifdef DIHRES
[ dihedral_restraints ]
   50    55    53    64     1    120.0      2.5       DIHRES_FC
   85    88    90    92     1      0.0      0.0       DIHRES_FC
#endif
